105
Lattice="11.45512985522207 0.0 0.0 5.727564927611035 9.92043345827187 0.0 0.0 0.0 31.691342951089922" Properties=species:S:1:pos:R:3:tags:I:1:forces:R:3 energy=-424.34423828125 free_energy=-424.34423828125 stress="0.005457169841974974 1.4421530067920685e-06 -2.5704503059387207e-07 1.4421530067920685e-06 0.005516375880688429 9.471550583839417e-07 -2.5704503059387207e-07 9.471550583839417e-07 0.005574996583163738" pbc="T T F"
Al       1.41811768       0.89183437      10.00723095        6       0.00010117       0.00003216       0.00026253
Al       4.28429605       0.89062487      10.01818456        6       0.00011440      -0.00007546       0.00021673
Al       7.14628857       0.89020970      10.02342555        6       0.00026086      -0.00003074       0.00035519
Al      10.00958976       0.89059355      10.01578894        6       0.00017250       0.00004345       0.00044010
Al       2.84934753       3.37348859      10.02080748        6       0.00009760       0.00005031       0.00010855
Al       5.71229353       3.37257467      10.02232301        6       0.00021867       0.00004461       0.00018131
Al       8.57700123       3.37147774      10.02046948        6       0.00020790       0.00002120       0.00021575
Al      11.44122649       3.37383679      10.01837573        6       0.00011023       0.00003768       0.00014114
Al       4.28124863       5.85080669      10.02852431        6       0.00018715       0.00026242       0.00029902
Al       7.14577967       5.84937928      10.02335035        6       0.00025020       0.00027185       0.00028249
Al      10.01165311       5.85126098      10.02791837        6       0.00024826       0.00015294       0.00026453
Al      12.87415701       5.85214508      10.03553201        6       0.00022575       0.00016531       0.00037451
Al       5.71363678       8.32893083      10.01742396        6       0.00016561       0.00031072       0.00036196
Al       8.57992562       8.32869216      10.01790439        6       0.00021882       0.00021800       0.00035284
Al      11.44419848       8.32908386      10.03212842        6       0.00024248       0.00013319       0.00051610
Al      14.30581989       8.32951494      10.03015345        6       0.00026417       0.00017071       0.00055831
Al       0.01341552       1.68986243      12.39683213        5       0.00041021       0.00172970      -0.00051141
Al       2.87564194       1.69213289      12.39673951        5      -0.00160672       0.00067990      -0.00178843
Al       5.73948732       1.68914169      12.40052906        5      -0.00018435       0.00206393       0.00064128
Al       8.60719506       1.68830477      12.40499811        5      -0.00064249       0.00139096      -0.00209182
Al       1.44540365       4.17342199      12.41116627        5       0.00053971      -0.00026346      -0.00314292
Al       4.30662329       4.17486613      12.40590273        5      -0.00032644      -0.00059032      -0.00131458
Al       7.17553914       4.17289989      12.40453657        5      -0.00130238       0.00017839      -0.00364255
Al      10.04045389       4.17304854      12.40704311        5      -0.00056375      -0.00002541      -0.00625728
Al       2.87680761       6.65605295      12.42162355        5      -0.00054161       0.00026846       0.00184552
Al       5.73895890       6.65702538      12.40196354        5       0.00034269      -0.00021226       0.00495715
Al       8.60719434       6.65838379      12.40159120        5       0.00016766      -0.00064092       0.00392392
Al      11.47140616       6.65772653      12.42143590        5       0.00053077      -0.00051702       0.00020123
Al       4.30728829       9.13356674      12.40575942        5       0.00033647       0.00000749       0.00449937
Al       7.16925296       9.13459476      12.38752551        5       0.00082863       0.00040500       0.00626663
Al      10.03694467       9.13436062      12.40663101        5      -0.00092242      -0.00030665       0.00083696
Al      12.90070233       9.13396710      12.41413231        5       0.00103992      -0.00098518       0.00423030
Al       0.01254899       0.03224801      14.69504638        4       0.00022642       0.00023268       0.00173380
Al       2.86621681       0.03129375      14.68651517        4      -0.00000600      -0.00005348       0.00097346
Al       5.73707285       0.02553806      14.70615546        4       0.00012622      -0.00005076       0.00070834
Al       8.60316210       0.02721982      14.71626415        4       0.00072876       0.00017794       0.00078411
Al       1.43960177       2.50680996      14.69568789        4       0.00021133      -0.00064625      -0.00002225
Al       4.29641436       2.50318197      14.68974272        4      -0.00056047      -0.00079404      -0.00506470
Al       7.17094305       2.50010361      14.68399061        4      -0.00017291      -0.00013475       0.00034712
Al      10.04463825       2.50568469      14.69189241        4      -0.00207991      -0.00216846      -0.00244524
Al       2.87014283       4.98942643      14.70927697        4       0.00007964      -0.00000902       0.00091003
Al       5.73731795       4.99090046      14.68692157        4      -0.00060791      -0.00012681      -0.00082693
Al       8.61365314       4.99447503      14.68882178        4      -0.00041990      -0.00015003       0.00000803
Al      11.46973941       4.98788923      14.70073686        4       0.00052827       0.00064450       0.00175442
Al       4.30506293       7.47507535      14.71670289        4       0.00064267       0.00012379       0.00025938
Al       7.17520243       7.48172464      14.69115316        4      -0.00378472      -0.00140549      -0.00584077
Al      10.04166105       7.47482352      14.71325153        4      -0.00106362      -0.00003477      -0.00238977
Al      12.90277381       7.47711968      14.73540656        4      -0.00107968      -0.00200166      -0.00369310
Al       1.40237434       0.84124673      17.03206980        3       0.00026749      -0.00029957       0.00202286
Al       4.24987180       0.81925234      16.98634447        3      -0.00011589      -0.00009950       0.00210190
Al       7.14223602       0.81612666      17.01067583        3      -0.00000667       0.00111277      -0.00015096
Al      10.02288476       0.83497715      17.02969157        3       0.00046533      -0.00052905       0.00003201
Al       2.82739809       3.28594951      17.00301736        3      -0.00078659       0.00110510      -0.00040261
Al       5.68786915       3.29080506      16.96283081        3       0.00195280       0.00248409      -0.00005297
Al       8.58039040       3.29830909      16.96218344        3       0.00044785       0.00257614      -0.00028787
Al      11.44008495       3.29451926      17.00180524        3       0.00008165       0.00072544       0.00198435
Al       4.26962311       5.79947222      17.00291372        3       0.00013639      -0.00011824      -0.00048726
Al       7.14027222       5.81744701      16.95820372        3       0.00006898      -0.00048299       0.00269999
Al      10.01984144       5.81268890      17.00418522        3      -0.00024051      -0.00286595       0.00015139
Al      12.86747301       5.79346403      17.03266562        3       0.00037817       0.00042497      -0.00129718
Al       5.71415531       8.31059100      17.01414075        3       0.00027543      -0.00043611       0.00208910
Al       8.56182949       8.29551610      16.99695647        3       0.00056952       0.00095186       0.00215023
Al      11.43340394       8.28401329      17.03908514        3      -0.00026305      -0.00345530      -0.00427913
Al      14.31103256       8.28660282      17.05073298        3      -0.00251085      -0.00691734      -0.00607160
Al      -0.06028615       1.66418287      19.42029558        2      -0.00107085      -0.00007360       0.00068713
Al       2.76234822       1.62192970      19.36704079        2       0.00065281      -0.00133875       0.00172767
Al       5.61577979       1.62575311      19.21915059        2       0.00205953       0.00100049       0.00443541
Al       8.57619017       1.68378048      19.24495221        2      -0.00132753      -0.00018927       0.00234984
Al       1.36441267       4.10474844      19.27532420        2      -0.00098309      -0.00076539      -0.00109414
Al       4.21951382       4.10740958      19.22132846        2       0.00049592      -0.00065192       0.00213686
Al       7.11293043       4.13817170      19.16914169        2      -0.00159923      -0.00022903       0.00099513
Al       9.97279886       4.12182757      19.23822400        2      -0.00026898      -0.00037809      -0.00178479
Al       2.81922505       6.61060742      19.32310749        2      -0.00053897      -0.00020388      -0.00402661
Al       5.69697198       6.65759848      19.23286876        2      -0.00123292      -0.00107968      -0.00120430
Al       8.54900495       6.66539337      19.23003116        2      -0.00104510       0.00026544      -0.00251260
Al      11.42231515       6.64115593      19.33527462        2      -0.00003488      -0.00296694      -0.00128962
Al       4.25081187       9.11454643      19.34705246        2      -0.00033095      -0.00113916      -0.00555627
Al       7.11033623       9.12011472      19.36779136        2       0.00043358       0.00143329      -0.00012113
Al       9.95224078       9.09797321      19.32374069        2      -0.00128565       0.00061316       0.00259388
Al      12.82445886       9.09451180      19.32500429        2       0.00037899      -0.00137385       0.00332013
Al      -0.32085626      -0.11475603      21.97286705        1      -0.00270224      -0.00288570       0.00109446
Al       2.73016270      -0.05507697      22.18541023        1       0.00064010       0.00232940      -0.00301434
Al       5.59031063       0.06599014      21.65605178        1       0.00113502       0.00167272      -0.00145792
Al       8.37693073       0.06571686      21.62439096        1       0.00159338      -0.00063816      -0.00248594
Al       1.21744116       2.59524498      21.92274192        1      -0.00122789       0.00169560       0.00306390
Al       4.16372273       2.48004866      21.58777561        1       0.00149329       0.00113223      -0.00340366
Al       6.98283842       2.52234629      21.42994144        1       0.00094877      -0.00117519      -0.00143974
Al       9.77229812       2.56286775      21.91698210        1       0.00056214      -0.00032286      -0.00248637
Al       2.76652049       4.93936871      21.63612378        1      -0.00140262       0.00003507      -0.00155584
Al       5.63584315       4.96257773      21.42019084        1       0.00107581      -0.00261336       0.00099284
Al       8.46202790       5.01191679      21.40914242        1      -0.00232549      -0.00191271       0.00161591
Al      11.26914821       4.99099504      21.58532802        1      -0.00063973      -0.00243300       0.00032859
Al       4.13601662       7.35396885      21.69662502        1       0.00160605       0.00208729       0.00238677
Al       7.04098029       7.43523440      21.64576528        1      -0.00114087      -0.00136275       0.00212413
Al       9.88989550       7.45059164      21.66424376        1      -0.00115537      -0.00312863      -0.00073280
Al      12.70248286       7.38702610      22.08146661        1       0.00121797       0.00280260       0.00030449
C        6.08832191       3.99029841      24.54080894        0      -0.00512187       0.00350709       0.00354330
N        6.92784581       2.96179561      24.43491801        0      -0.00163057       0.00283017       0.00338598
C        8.18572667       3.46849323      24.55907599        0       0.00582364      -0.00434653       0.00225752
S        9.65672850       2.63102166      24.33373334        0       0.00216194      -0.00388712      -0.00507674
N        8.10925287       4.83354057      24.70159428        0       0.00159465       0.00457727      -0.00078551
N        6.74485083       5.17822718      24.82716980        0       0.00483459       0.00446838      -0.00143240
H        5.01244982       3.94695084      24.39148132        0      -0.00132753       0.00346968       0.00219726
H        8.82011925       5.41228475      25.14144604        0       0.00375893       0.00115839      -0.00103567
H        6.47090329       5.99613325      24.25783522        0       0.00124771       0.00723536      -0.00003056
